variables = "X", "Y", "Area Fraction"
zone N=837, E=1589, F=FEPOINT, ET=TRIANGLE

 943	  32	0.1452
  18	 480	0.0469
   0	 512	0.0567
 536	 416	0.0691
 962	 512	0.0535
 943	 480	0.0520
 980	 480	0.0550
 925	 960	0.1440
 925	 896	0.1289
 906	 928	0.1382
 943	 928	0.1394
 962	 960	0.1463
 555	 640	0.0685
 444	 512	0.0540
 703	 960	0.1539
 573	 672	0.0877
 610	 672	0.0833
 925	 512	0.0462
 943	 544	0.0604
 629	 704	0.0883
 592	 704	0.0903
 962	   0	0.1463
 888	   0	0.1504
 906	  32	0.1449
 888	  64	0.1431
 869	  32	0.1394
 703	   0	0.1620
 721	  32	0.1487
 610	 288	0.0874
 481	 448	0.0645
 370	 512	0.0534
 148	 640	0.0891
 166	 736	0.0987
 166	 608	0.0833
  18	 544	0.0639
  55	 480	0.0511
 351	 928	0.1440
 277	 928	0.1463
 980	 416	0.0709
 980	 864	0.1362
 962	 896	0.1313
 943	 864	0.1292
 462	 480	0.0575
 481	 512	0.0592
 388	 928	0.1298
 573	 928	0.1455
 684	 928	0.1373
 536	 672	0.0889
 647	 672	0.0801
 666	 704	0.0891
 980	 544	0.0650
 962	 576	0.0695
 925	 576	0.0682
 906	 608	0.0769
 943	 608	0.0784
 647	 736	0.1008
 610	 736	0.0941
 962	 128	0.1267
 943	  96	0.1379
 980	  32	0.1399
 962	  64	0.1411
 814	 256	0.1034
 832	  32	0.1426
 814	   0	0.1446
 758	  32	0.1452
 740	  64	0.1368
 703	 192	0.1109
 721	 224	0.1071
 795	 288	0.0941
 703	 320	0.0819
 684	 352	0.0764
 462	 288	0.0848
 647	 224	0.1045
 666	 192	0.1080
 629	 256	0.0932
 703	 256	0.0999
 555	 320	0.0897
 573	 288	0.0944
 555	 384	0.0825
 518	 384	0.0775
 481	 384	0.0749
 425	 288	0.0830
 499	 416	0.0694
 148	   0	0.1417
 314	 160	0.1231
 240	  96	0.1341
 277	 160	0.1112
   0	 192	0.1125
  37	 128	0.1251
  55	 160	0.1135
   0	 960	0.1269
  18	 928	0.1246
  92	 800	0.1173
  18	 864	0.1175
  37	 896	0.1275
   0	 832	0.1073
 185	 896	0.1278
 222	 832	0.1196
 129	 864	0.1173
 111	 896	0.1254
 222	 896	0.1301
 351	 480	0.0540
 333	 512	0.0537
 296	 448	0.0575
 296	 512	0.0555
 277	 480	0.0555
 425	 480	0.0508
 444	 448	0.0630
 462	 416	0.0677
 129	 736	0.1019
 148	 768	0.1098
 111	 768	0.1071
 129	 800	0.1124
 166	 800	0.1130
  18	 800	0.0959
 203	 672	0.0903
 185	 704	0.1037
 148	 704	0.0932
 203	 736	0.0987
 185	 768	0.1086
 259	 704	0.1025
 277	 672	0.0949
 222	 512	0.0546
 222	 640	0.0845
 240	 672	0.0932
 185	 640	0.0859
 203	 608	0.0735
  18	 608	0.0768
   0	 576	0.0714
  55	 608	0.0714
  37	 576	0.0677
  92	 672	0.0807
  92	 736	0.1060
  55	 736	0.1010
  74	 704	0.0929
 111	 640	0.0894
  92	 544	0.0537
  74	 512	0.0505
  92	 480	0.0581
 111	 512	0.0499
   0	 384	0.0709
   0	 448	0.0526
  37	 448	0.0572
  74	 448	0.0601
 166	 544	0.0653
 203	 544	0.0610
 185	 448	0.0618
 203	 480	0.0485
 185	 512	0.0531
 832	 544	0.0584
 851	 576	0.0723
 888	 576	0.0717
 962	 384	0.0739
 943	 352	0.0839
 906	 864	0.1211
 425	 544	0.0601
 518	 576	0.0648
 592	 576	0.0691
 592	 640	0.0813
 573	 608	0.0700
 518	 512	0.0566
 499	 480	0.0610
 518	 448	0.0607
 740	 896	0.1254
 666	 832	0.1121
 684	 864	0.1249
 740	 960	0.1487
 721	 928	0.1388
 758	 928	0.1295
 777	 960	0.1411
 536	 928	0.1414
 425	 928	0.1385
 370	 960	0.1487
 407	 960	0.1475
 444	 832	0.1272
 407	 896	0.1298
 425	 864	0.1341
 351	 608	0.0700
 370	 640	0.0839
 314	 672	0.0874
 333	 704	0.0891
 629	 960	0.1353
 499	 608	0.0694
 518	 640	0.0677
 851	 704	0.0926
 666	 640	0.0778
 629	 640	0.0714
 684	 672	0.0880
 962	 640	0.0908
 869	 608	0.0761
 888	 640	0.0798
 851	 640	0.0752
 906	 672	0.0894
 832	 608	0.0706
 758	 800	0.1130
 684	 736	0.1010
 666	 768	0.1057
 740	 768	0.0952
 758	 736	0.0958
 592	 768	0.1074
 555	 768	0.1069
 610	 800	0.1176
 925	  64	0.1492
 869	  96	0.1405
 888	 128	0.1318
 832	  96	0.1278
 962	 256	0.1034
 943	 160	0.1254
 980	 160	0.1185
 962	 192	0.1082
 925	 192	0.1124
 943	 224	0.1039
 980	 224	0.1137
 869	 160	0.1208
 943	 288	0.0886
 925	 256	0.0952
 980	 288	0.0960
 962	 320	0.0874
 925	 320	0.0891
 906	 352	0.0825
 906	 288	0.0900
 814	  64	0.1434
 795	  32	0.1455
 407	   0	0.1568
 518	  64	0.1394
 536	  32	0.1440
 592	   0	0.1394
 610	  32	0.1400
 666	 128	0.1188
 629	 128	0.1315
 592	  64	0.1318
 721	  96	0.1283
 758	  96	0.1246
 740	 192	0.1089
 555	 448	0.0639
 592	 448	0.0604
 573	 480	0.0546
 573	 416	0.0749
 629	 448	0.0618
 684	 416	0.0668
 647	 416	0.0694
 740	 256	0.1045
 721	 288	0.0906
 721	 352	0.0842
 481	 256	0.0961
 499	 352	0.0764
 536	 352	0.0828
 499	 288	0.0918
 518	 320	0.0819
 592	 256	0.1022
 684	 224	0.1019
 647	 288	0.0897
 666	 256	0.0932
 425	 416	0.0645
 444	 320	0.0798
 111	   0	0.1574
 129	  32	0.1498
 148	  64	0.1420
 111	  64	0.1368
 425	 224	0.1074
 444	 256	0.0976
 407	 256	0.0964
 370	 256	0.0909
 388	 288	0.0923
 462	 224	0.1054
 499	 224	0.0967
 444	 192	0.1100
 166	  32	0.1429
 240	 160	0.1141
 222	 192	0.1103
 185	 192	0.1109
 222	 128	0.1249
 333	 128	0.1199
 370	  64	0.1339
 277	  96	0.1429
 296	 128	0.1295
 333	 384	0.0697
  55	 864	0.1132
  74	 832	0.1231
 111	 832	0.1179
  92	 864	0.1118
  74	 960	0.1312
  55	 928	0.1312
  37	 960	0.1243
  92	 928	0.1365
  74	 896	0.1321
 296	 896	0.1333
 259	 896	0.1385
 277	 864	0.1234
 314	 864	0.1222
 203	 928	0.1368
 185	 960	0.1458
 111	 960	0.1295
 129	 928	0.1269
 148	 960	0.1318
 148	 896	0.1237
 166	 928	0.1365
 388	 480	0.0552
 370	 448	0.0560
 259	 448	0.0639
 333	 448	0.0537
 314	 416	0.0653
 314	 480	0.0497
 203	 800	0.1118
 148	 832	0.1243
 166	 864	0.1251
 111	 704	0.0981
 129	 672	0.0903
 222	 704	0.0900
 240	 736	0.0944
 277	 736	0.1005
 314	 544	0.0589
   0	 704	0.0964
  37	 640	0.0804
   0	 640	0.0846
  55	 672	0.0804
  18	 736	0.1047
  37	 768	0.1013
   0	 768	0.0961
  37	 704	0.0926
  74	 576	0.0723
  37	 512	0.0502
  55	 544	0.0587
  92	 608	0.0862
 111	 576	0.0706
   0	 320	0.0808
  37	 320	0.0836
  37	 192	0.1138
 166	 352	0.0769
  18	 352	0.0779
  55	 416	0.0685
  92	 416	0.0697
 148	 512	0.0537
 129	 480	0.0511
 148	 448	0.0578
 222	 576	0.0624
 185	 576	0.0749
 296	 384	0.0711
 314	 352	0.0787
 277	 352	0.0793
 203	 416	0.0746
 240	 480	0.0566
 222	 448	0.0618
 943	 416	0.0697
 906	 544	0.0508
 703	 448	0.0613
 684	 480	0.0526
 832	 928	0.1429
 814	 960	0.1551
 888	 960	0.1376
 869	 928	0.1388
 869	 800	0.1089
 888	 832	0.1066
 980	 736	0.0995
 962	 768	0.1060
 962	 832	0.1299
 869	 736	0.1022
 407	 512	0.0572
 351	 544	0.0662
 388	 544	0.0621
 407	 576	0.0630
 536	 544	0.0630
 499	 544	0.0604
 536	 608	0.0616
 555	 576	0.0659
 555	 512	0.0575
 536	 480	0.0569
 721	 800	0.1115
 703	 768	0.1022
 740	 832	0.1150
 703	 832	0.1179
 721	 864	0.1251
 629	 896	0.1321
 703	 896	0.1333
 777	 896	0.1225
 573	 864	0.1202
 555	 896	0.1376
 610	 864	0.1275
 518	 832	0.1304
 555	 832	0.1173
 610	 928	0.1405
 647	 928	0.1301
 592	 896	0.1385
 518	 960	0.1469
 499	 928	0.1431
 481	 960	0.1405
 499	 864	0.1275
 518	 896	0.1289
 481	 896	0.1324
 462	 928	0.1347
 444	 896	0.1304
 462	 864	0.1260
 370	 896	0.1286
 351	 672	0.0918
 333	 640	0.0816
 296	 640	0.0801
 499	 800	0.1161
 499	 736	0.1019
 481	 768	0.1089
 555	 704	0.0883
 536	 736	0.0944
 499	 672	0.0880
 832	 672	0.0842
 943	 672	0.0859
 814	 768	0.0990
 721	 736	0.0952
 592	 832	0.1144
 647	 800	0.1121
 777	 128	0.1254
 740	 128	0.1246
 758	 160	0.1164
 777	 192	0.1127
 906	 160	0.1289
 925	 128	0.1295
 814	 192	0.1153
 888	 320	0.0851
 777	  64	0.1402
 795	  96	0.1243
 388	  32	0.1487
 518	   0	0.1492
 425	  32	0.1510
 444	   0	0.1452
 462	  32	0.1458
 370	 128	0.1249
 388	 160	0.1170
 407	  64	0.1315
 629	   0	0.1458
 647	  32	0.1466
 555	   0	0.1539
 573	  32	0.1431
 703	  64	0.1356
 647	 160	0.1159
 555	  64	0.1408
 703	 128	0.1246
 684	 160	0.1182
 777	 256	0.1031
 758	 288	0.0903
 740	 320	0.0862
 832	 288	0.0935
 869	 352	0.0848
 832	 352	0.0836
 814	 320	0.0822
 851	 320	0.0886
 795	 352	0.0798
 592	 320	0.0915
 573	 352	0.0822
 592	 384	0.0787
 647	 352	0.0796
 536	 160	0.1153
 555	 256	0.0970
 518	 256	0.0941
 684	 288	0.0889
 444	 384	0.0668
 462	 352	0.0781
 481	 320	0.0828
  37	   0	0.1545
   0	 128	0.1245
  55	  96	0.1324
  18	  96	0.1255
  18	  32	0.1374
   0	   0	0.1389
  37	  64	0.1289
  55	  32	0.1469
   0	  64	0.1265
  92	  32	0.1417
 296	 192	0.1095
 259	 192	0.1060
 314	 224	0.1060
 333	 192	0.1132
 518	 192	0.1156
 407	 128	0.1199
 462	 160	0.1074
 407	 192	0.1095
 499	 160	0.1278
 481	 192	0.1138
 185	  64	0.1458
 259	 128	0.1176
 296	  64	0.1368
 333	  64	0.1330
 314	  96	0.1370
 351	 352	0.0746
 277	 224	0.1074
 314	 928	0.1382
 296	 960	0.1429
 259	 832	0.1150
 222	 768	0.0990
 259	 768	0.0999
 240	 800	0.1132
 259	 960	0.1452
 240	 928	0.1420
 240	 416	0.0720
 185	 832	0.1211
 333	 576	0.0685
  74	 640	0.0740
  74	 768	0.1042
  55	 800	0.1159
  37	 832	0.1164
 148	 576	0.0642
 129	 608	0.0775
 129	 544	0.0633
  18	 224	0.1013
  74	 192	0.1144
 129	 288	0.0918
  55	 352	0.0764
  74	 320	0.0862
  92	 352	0.0743
  74	 384	0.0717
 111	 384	0.0729
 129	 416	0.0677
 111	 192	0.1144
 129	 224	0.1135
 203	 224	0.1031
  92	  96	0.1344
 166	  96	0.1307
 166	 160	0.1179
 111	 448	0.0607
 925	 448	0.0552
 906	 416	0.0604
 925	 384	0.0714
 869	 544	0.0560
 814	 448	0.0537
 851	 448	0.0589
 851	 384	0.0758
 869	 416	0.0613
 851	 896	0.1344
 925	 832	0.1231
 888	 704	0.0935
 462	 544	0.0595
 444	 576	0.0703
 481	 576	0.0650
 573	 544	0.0674
 647	 480	0.0528
 610	 480	0.0563
 684	 800	0.1112
 647	 864	0.1243
 666	 896	0.1286
 832	 864	0.1310
 869	 864	0.1249
 481	 832	0.1228
 536	 800	0.1156
 370	 832	0.1260
 351	 864	0.1330
 333	 832	0.1153
 388	 864	0.1286
 240	 608	0.0781
 259	 576	0.0639
 277	 608	0.0726
 259	 640	0.0935
 370	 704	0.0929
 388	 672	0.0915
 388	 736	0.1037
 370	 768	0.1060
 333	 768	0.1083
 407	 704	0.0915
 425	 736	0.0961
 407	 768	0.1141
 444	 768	0.1167
 518	 704	0.0984
 425	 672	0.0859
 444	 640	0.0732
 462	 672	0.0830
 462	 608	0.0732
 388	 608	0.0679
 407	 640	0.0857
 814	 640	0.0793
 795	 736	0.0970
 832	 736	0.0952
 795	 672	0.0845
 814	 704	0.0862
 777	 640	0.0677
 777	 704	0.0947
 925	 640	0.0857
 980	 672	0.0814
 962	 704	0.0861
 795	 608	0.0665
 814	 576	0.0624
 758	 608	0.0738
 777	 576	0.0662
 758	 544	0.0616
 851	 768	0.1028
 832	 800	0.1106
 795	 800	0.1170
 629	 768	0.1071
 795	 160	0.1188
 814	 128	0.1190
 795	 224	0.1063
 758	 224	0.1095
 851	 192	0.1124
 851	 128	0.1312
 832	 160	0.1173
 869	 224	0.0952
 832	 224	0.1039
 888	 192	0.1066
 444	  64	0.1391
 629	  64	0.1254
 684	  32	0.1527
 666	  64	0.1402
 647	  96	0.1278
 555	 128	0.1190
 610	 160	0.1275
 869	 288	0.0955
 851	 256	0.0944
 777	 320	0.0877
 777	 384	0.0703
 610	 352	0.0787
 629	 320	0.0935
 666	 320	0.0851
 629	 384	0.0738
 610	 416	0.0674
 573	 224	0.0987
 610	 224	0.1138
 536	 224	0.1028
 721	 480	0.0528
 740	 512	0.0523
 647	 608	0.0743
 407	 320	0.0851
 388	 352	0.0796
 351	 416	0.0598
 370	 384	0.0677
 370	 192	0.1156
 333	 256	0.0990
 351	 224	0.1054
 351	 288	0.0941
 296	 320	0.0874
 277	 288	0.0932
 259	 320	0.0825
 425	  96	0.1234
 388	  96	0.1318
 425	 160	0.1095
 444	 128	0.1132
 536	  96	0.1310
 518	 128	0.1318
 259	  64	0.1397
 351	  32	0.1420
 333	   0	0.1492
 222	   0	0.1580
 296	 256	0.1042
 277	 416	0.0688
 259	 384	0.0677
   0	 256	0.0974
  37	 256	0.0958
  74	 128	0.1193
 111	 320	0.0926
  92	 288	0.1019
 148	 256	0.0955
 111	 256	0.1010
  37	 384	0.0767
  18	 416	0.0694
  92	 224	0.1071
 240	 224	0.1002
 240	 352	0.0775
 129	  96	0.1312
 111	 128	0.1199
 185	 128	0.1292
 203	 160	0.1199
 203	  96	0.1385
 906	 480	0.0528
 888	 384	0.0706
 814	 512	0.0499
 888	 896	0.1347
 980	 800	0.1137
 925	 704	0.0909
 888	 768	0.1063
 906	 736	0.1028
 629	 512	0.0572
 592	 512	0.0566
 795	 864	0.1263
 795	 928	0.1434
 814	 896	0.1292
 333	 896	0.1400
 277	 544	0.0595
 259	 512	0.0636
 314	 608	0.0653
 296	 576	0.0581
 351	 800	0.1138
 388	 800	0.1141
 314	 736	0.1051
 351	 736	0.0979
 425	 800	0.1208
 407	 832	0.1222
 481	 704	0.0984
 721	 672	0.0807
 740	 704	0.0862
 721	 608	0.0746
 795	 544	0.0537
 777	 512	0.0540
 721	 544	0.0685
 684	 544	0.0627
 740	 576	0.0714
 703	 576	0.0694
 888	 256	0.0996
 906	 224	0.1013
 481	  64	0.1376
 462	  96	0.1298
 573	 160	0.1173
 592	 128	0.1278
 629	 192	0.1170
 592	 192	0.1173
 814	 384	0.0743
 795	 416	0.0610
 703	 384	0.0706
 666	 384	0.0711
 758	 480	0.0546
 740	 448	0.0621
 684	 608	0.0740
 629	 576	0.0671
 425	 352	0.0816
 388	 416	0.0613
 370	 320	0.0833
 314	 288	0.0949
 333	 320	0.0851
 481	 128	0.1220
 573	  96	0.1251
 240	  32	0.1490
 222	  64	0.1347
 203	  32	0.1492
 277	 800	0.1051
  92	 160	0.1100
 129	 352	0.0746
 166	 224	0.1103
 185	 256	0.1013
 203	 288	0.0894
 166	 288	0.0874
 148	 320	0.0897
 166	 416	0.0665
  74	 256	0.0981
  55	 288	0.0949
  55	 224	0.0996
 259	 256	0.0981
 203	 352	0.0708
 222	 320	0.0790
 222	 384	0.0694
 185	 384	0.0679
 148	 128	0.1275
 888	 448	0.0563
 869	 480	0.0604
 888	 512	0.0473
 832	 480	0.0523
 851	 512	0.0528
 925	 768	0.1028
 906	 800	0.1045
 666	 512	0.0546
 758	 864	0.1257
 777	 832	0.1249
 444	 704	0.0952
 703	 704	0.0845
 703	 640	0.0822
 610	  96	0.1240
 758	 416	0.0671
 758	 352	0.0813
 610	 544	0.0627
 647	 544	0.0540
 666	 576	0.0636
 277	  32	0.1414
 259	   0	0.1487
 314	  32	0.1391
 296	 832	0.1042
 314	 800	0.1057
 129	 160	0.1185
 240	 288	0.0874
 795	 480	0.0462
 851	 832	0.1164
 814	 832	0.1243
 462	 736	0.1069
 740	 640	0.0793
 740	 384	0.0717
 721	 416	0.0679
 296	 768	0.1071
 222	 256	0.0996
 666	 960	0.1434
 925	   0	0.1492
 851	  64	0.1362
 740	   0	0.1469
 980	 928	0.1405
 592	 960	0.1376
 980	 608	0.0776
 980	  96	0.1340
 851	   0	0.1452
 536	 288	0.0900
 185	   0	0.1295
  18	 160	0.1190
   0	 896	0.1219
 240	 864	0.1193
 203	 864	0.1249
 407	 448	0.0552
 166	 672	0.0929
 296	 704	0.0967
 240	 544	0.0572
 166	 480	0.0534
 980	 352	0.0765
 610	 608	0.0761
 555	 960	0.1417
 444	 960	0.1394
 869	 672	0.0854
 777	 768	0.1022
 573	 736	0.0894
 573	 800	0.1164
 906	  96	0.1443
 777	   0	0.1405
 499	  32	0.1423
 666	 448	0.0566
 388	 224	0.1002
  18	 672	0.0870
 962	 448	0.0658
 851	 960	0.1400
 943	 736	0.0973
 370	 576	0.0665
 536	 864	0.1286
 462	 800	0.1188
 518	 768	0.1002
 629	 832	0.1228
 721	 160	0.1167
 481	   0	0.1510
 351	 160	0.1176
 351	  96	0.1382
 666	   0	0.1458
 684	  96	0.1283
  74	   0	0.1504
  74	  64	0.1394
 555	 192	0.1051
 333	 960	0.1510
 222	 960	0.1365
  18	 288	0.0909
 148	 192	0.1138
 832	 416	0.0668
 481	 640	0.0714
 425	 608	0.0767
 758	 672	0.0845
 703	 512	0.0552
 407	 384	0.0688
 499	  96	0.1397
 370	   0	0.1487
 777	 448	0.0557
 148	 384	0.0711
 185	 320	0.0813
 943	 800	0.1161
 296	   0	0.1336

   1	  22	  60
   2	 322	   3
   3	 142	   2
   4	  79	 238
   5	   7	  51
   6	   5	  18
   7	   5	   6
   8	  11	  12
   9	  11	  10
  10	   8	 350
  11	   8	  10
  12	  11	 774
  13	 159	  16
  14	 107	  43
  15	 770	  47
  16	 159	  17
  17	  21	  16
  18	   5	  19
  19	   5	  51
  20	  57	  21
  21	  17	  20
  22	   1	 771
  23	 771	  24
  24	 771	   1
  23	  24	  26
  25	 772	  26
  26	  24	  25
  27	 773	  28
  28	 773	  65
  29	  75	 252
  30	 162	  43
  31	 359	 103
  32	 126	 786
  33	 111	 110
  33	 120	 111
  34	 126	  32
  35	 129	   3
  35	   3	 322
  36	 322	   2
  36	 138	 322
  37	 173	 821
  38	 484	 489
  39	   7	 804
   7	   6	 804
  40	 774	  41
  41	  11	   9
  41	 774	  11
  40	  41	  42
  42	  41	   9
  43	 162	  44
  44	  14	  43
  45	 173	  37
  46	 775	 792
  47	 770	 382
  48	  13	  16
  49	  20	  17
  50	  20	  49
  51	 776	  52
  52	  19	  51
  53	  19	  52
  54	  53	  55
  53	  52	  55
  55	  52	 776
  56	  20	  50
  57	  20	  56
  58	 777	 209
  59	 777	  58
  60	 777	  61
  61	   1	  60
  61	 777	  59
  62	 592	 602
  23	  26	 778
  63	  26	 772
  64	 778	  63
  63	 778	  26
  65	 773	 799
  66	  28	  65
  67	 234	  68
  67	 251	  74
  68	 251	  67
  68	 234	 587
  69	 436	  62
  70	 243	 438
  71	 607	  70
  72	 248	 455
  73	 697	  74
  74	 251	  73
  75	 611	  73
  73	 611	 697
  76	 251	  68
  77	 779	  78
  78	 779	 450
  79	   4	  80
  80	 247	  79
  81	 109	 453
  82	 261	  72
  81	  80	  83
  83	  80	   4
  83	 109	  81
  83	  30	 109
  84	 780	 268
  85	 273	 814
  86	 656	 715
  87	 467	 269
  88	 457	 781
  89	 781	 457
  90	 781	  89
  91	 782	  92
  92	 284	  91
  92	 782	  95
  93	 113	 280
  94	 782	  96
  95	 782	  94
  96	 497	  94
  97	 306	 784
  98	 783	 784
  99	 281	 280
 100	 281	  99
 101	 783	 288
  97	 784	 101
 101	 784	 783
 102	  31	 103
 103	 303	 102
 104	 303	 106
 105	 672	 106
 106	 303	 105
 105	 303	 103
  43	 107	 108
 107	 785	 108
 108	  30	  43
 109	  30	 108
 110	 111	 112
 111	 113	 112
 112	  93	 495
 113	  93	 112
 111	 120	 114
 114	 113	 111
  96	 319	 115
 115	 497	  96
 116	 786	 126
 117	 786	 116
  32	 786	 308
 118	 786	 117
 117	  33	 118
 118	  33	 110
 118	 308	 786
 119	  33	 117
 120	  33	 119
 121	 125	 122
 122	 787	 121
 123	 672	 788
 124	 116	 126
 125	 116	 124
 126	  34	 127
 127	 124	 126
 128	 315	 129
 129	  35	 131
 130	 128	 131
 131	 128	 129
 132	 135	 316
 110	 112	 133
 133	 112	 495
 134	 133	 495
 135	 133	 134
  32	 308	 136
 136	 308	 132
 137	 138	 140
 138	  36	 139
 139	  36	 144
 140	 138	 139
 139	 334	 140
 141	 648	 142
 142	 648	 143
   2	 142	 143
 143	  36	   2
 144	  36	 143
 145	 149	 146
 146	 788	 336
 146	 149	 123
 123	 788	 146
 123	 149	 148
 147	 343	 148
 148	 789	 147
 149	 789	 148
 150	 520	 151
 151	 520	 152
 152	  53	  54
 153	 790	  39
 154	 790	 153
 155	  42	   9
 155	 538	 353
 156	 529	 361
 157	 364	 183
  13	 364	 160
 158	 791	 160
 159	  13	 160
 160	 791	 159
 161	  44	 162
 162	  30	 163
 163	  83	   4
  30	  83	 163
 164	 372	 743
 165	 371	 166
 166	 371	 372
 167	 169	 170
 164	 169	 168
 168	  15	  47
 168	 167	  15
 169	 167	 168
 170	 169	 668
  46	 377	 383
 171	 377	  46
  46	 792	 171
 172	 793	 174
 173	  45	 174
 174	  45	 172
 175	 177	 680
 172	  45	 176
 176	 391	 172
 177	 391	 176
 178	 395	 673
 179	 395	 178
 180	 787	 122
 181	 787	 180
 182	 382	 770
  21	  57	 796
 183	 364	 184
 184	 364	  13
  13	  48	 184
 185	 567	 569
 186	  49	 187
 159	 791	 187
 187	  17	 159
 187	  49	  17
  50	  49	 188
 188	  49	 186
 189	 776	 573
 189	  55	 776
 190	 152	  54
 151	 152	 190
 191	 190	  54
 192	 190	 191
 193	 794	 191
 191	 794	 192
 151	 190	 194
 194	 190	 192
 195	 795	 582
 196	  56	  50
 197	  56	 196
 196	 369	 197
 198	 795	 195
 199	 795	 198
 200	 796	  57
 201	 796	 200
 200	 797	 201
 202	 797	 200
   1	  61	 203
 203	  61	  59
  25	  24	 203
 203	  24	   1
 203	 798	  25
  59	 798	 203
 204	 798	 205
 205	 589	 204
 204	 772	  25
  25	 798	 204
 206	 772	 204
 204	 589	 206
 207	 213	 217
 208	  58	 209
 209	 213	 210
 210	 208	 209
 211	 208	 210
 212	 207	 216
 213	 207	 212
 212	 210	 213
 211	 210	 212
 214	 589	 205
 215	 207	 217
 216	 207	 215
 217	 790	 218
 218	 215	 217
 219	 215	 218
 218	 790	 154
 154	 219	 218
 220	 219	 154
 216	 215	 221
 221	 215	 219
 206	 418	 222
 222	 772	 206
 222	  63	 772
 223	 799	  64
  64	  63	 223
  63	 222	 223
  65	 799	 223
 224	 422	 421
  27	  28	 596
 225	 800	 226
 226	 800	 420
 227	 427	 228
 228	 430	 227
 229	 598	 817
 230	 598	 229
 231	 430	 228
 232	  66	 233
 233	 410	 232
 234	  67	 812
 235	   4	 238
 235	 163	   4
 236	 609	 239
 237	 235	 236
 238	 609	 236
 236	 235	 238
 239	 609	 241
 240	 801	 241
 241	 801	 239
 242	 587	 436
 243	  76	 242
  68	 587	 242
 242	  76	  68
 244	 701	  71
  71	  70	 244
 244	  70	 438
  72	 261	 245
 245	 248	  72
 246	  80	  81
 247	  80	 246
 248	 779	 249
 249	 455	 248
  77	 247	 249
 249	 779	  77
 247	 246	 249
 249	 246	 455
 250	  78	 450
  29	  78	 250
  75	  29	 250
 250	 611	  75
 251	  76	 253
 252	  75	 253
  75	  73	 253
 253	  73	 251
 254	 453	 109
 109	 108	 254
 254	 108	 785
  72	 455	 255
 255	  82	  72
 256	  84	 257
 257	  84	 268
 258	 257	 268
 259	 257	 258
 260	 261	 262
 261	  82	 262
 262	 802	 260
 263	 802	 262
 264	 262	  82
 263	 262	 264
 265	 245	 261
 266	 245	 265
 265	 261	 260
 260	 267	 265
 265	 475	 266
 267	 475	 265
 268	 780	 716
 269	 467	 270
 270	 655	 269
 271	 655	 270
 272	 656	  86
 269	 655	 272
 273	 480	 815
 274	 628	 815
 275	 480	 276
  85	  87	 276
 276	 273	  85
 276	 480	 273
 277	 618	 302
  95	  94	 278
 278	  94	 497
 279	  93	 280
 280	 281	 279
 279	 278	 497
 281	 278	 279
 282	 285	 293
 283	  92	  95
 284	  92	 283
 283	 282	 284
 285	 282	 283
  95	 278	 286
 286	 278	 281
 286	 283	  95
 285	 283	 286
 286	 281	 100
 100	 285	 286
 287	  38	 288
 288	 783	 289
 289	 287	 288
 290	 287	 289
  97	 101	 291
 291	 297	  97
 292	 297	 291
 292	 291	 822
 293	 285	 294
 294	 285	 100
 295	 297	 292
 293	 294	 295
 295	 294	 297
 296	 306	  97
  97	 297	 296
 100	  99	 296
 296	  99	 306
 296	 294	 100
 297	 294	 296
 298	 102	 299
  31	 102	 298
 298	 785	 107
 299	 785	 298
 300	 104	 106
 301	 618	 299
 299	 102	 301
 302	 618	 301
 301	 104	 302
 301	 102	 303
 303	 104	 301
 304	 114	 120
 304	 488	  98
 305	  99	 280
 306	  99	 305
 280	 113	 305
 113	 114	 305
 307	 135	 132
 132	 308	 307
 110	 133	 307
 307	 133	 135
 307	 118	 110
 308	 118	 307
 309	 121	 310
 125	 121	 309
 310	 119	 309
 309	 119	 117
 117	 116	 309
 309	 116	 125
 311	 121	 787
 311	 487	 310
 310	 121	 311
 103	 359	 312
 312	 105	 103
 313	 315	 803
 314	 128	 130
 315	 128	 314
 314	 803	 315
 316	 803	 314
 317	 319	 313
 318	 134	 495
 318	 115	 319
 319	 317	 318
 318	 317	 134
 320	 316	 135
 135	 134	 320
 313	 803	 320
 320	 803	 316
 320	 317	 313
 134	 317	 320
 321	 324	 130
 130	 131	 321
 322	 138	 323
 138	 137	 323
 323	  35	 322
 323	 131	  35
 323	 321	 131
 137	 321	 323
 324	 321	 325
 325	 321	 137
 326	 640	 823
 327	 326	 823
  88	 781	 328
 328	 781	  90
 329	 724	 835
 271	 720	 824
 330	 141	 326
 330	 326	 327
 331	 143	 648
 144	 143	 331
 144	 331	 332
 332	 331	 507
 333	 149	 145
 333	 789	 149
 140	 334	 333
 334	 789	 333
 147	 789	 335
 335	 789	 334
 336	 127	 337
 337	 146	 336
 337	 127	  34
 145	 146	 337
 338	 277	 302
 339	 277	 338
 339	 338	 340
 340	 338	 639
 341	 343	 147
 123	 148	 342
 342	 148	 343
 342	 672	 123
 106	 672	 342
 342	 300	 106
 343	 300	 342
  39	 804	 344
 344	 153	  39
 345	  19	  53
  53	 152	 345
  18	  19	 345
 345	 152	 520
 346	 801	 240
 347	 801	 346
 348	 805	 349
 349	 668	 348
 170	 668	 349
 350	 805	 351
 351	  10	 350
 351	 805	 348
 352	 353	 762
 353	 538	 762
 354	 661	 355
 355	 806	 354
 356	 661	  40
  40	  42	 356
 357	 567	 185
 107	  14	 358
  14	 156	 358
 358	 298	 107
  31	 298	 358
 359	  31	 360
 360	 807	 359
  31	 358	 360
 360	 358	 156
 361	 807	 360
 360	 156	 361
 362	 157	 363
 363	 161	 362
  44	 161	 363
 364	 157	 365
 365	 160	 364
 365	 157	 362
 362	 531	 365
 158	 160	 365
 365	 531	 158
 237	 666	 366
 366	 666	 531
 362	 161	 366
 366	 531	 362
 237	 366	 367
 367	 366	 161
 367	 235	 237
 163	 235	 367
 367	 161	 162
 162	 163	 367
 368	 198	 195
 369	 198	 368
 370	 368	 195
 371	 368	 370
 372	 371	 370
 370	 743	 372
 373	 383	 378
 374	 166	 372
 374	 168	  47
 374	 372	 164
 164	 168	 374
 375	 169	 164
 375	 668	 169
 164	 743	 375
 376	 808	 380
 377	 808	 376
 378	 383	 376
 376	 383	 377
 379	 808	 387
 380	 808	 379
 381	 182	 775
 382	 182	 381
 381	 775	  46
  46	 383	 381
 381	 373	 382
 383	 373	 381
 384	 171	 792
 385	 171	 384
 386	 385	 384
 387	 808	 388
 388	 171	 385
 388	 808	 377
 377	 171	 388
 387	 388	 389
 389	 388	 385
 390	 793	 172
 172	 391	 390
 386	 793	 390
 390	 385	 386
 390	 389	 385
 391	 389	 390
 392	 177	 175
 392	 391	 177
 387	 389	 392
 392	 389	 391
 393	  45	  37
 393	 176	  45
 394	 549	 181
 395	 179	 394
 181	 180	 394
 394	 180	 395
 396	 673	 395
 395	 180	 396
 396	 180	 122
 396	 547	 673
 181	 549	 678
 397	 809	 399
 398	 810	 399
 399	 810	 397
  16	  21	 400
  21	 796	 400
 400	  48	  16
 201	 810	 401
 401	 796	 201
 401	 400	 796
 401	 810	 398
 402	 184	  48
 361	 529	 827
 192	 794	 403
 185	 569	 403
 403	 794	 185
 404	 189	 573
 405	 582	 795
 369	 196	 406
 199	 198	 406
 406	 198	 369
 407	 811	 378
 202	 811	 407
 407	 376	 380
 378	 376	 407
 380	 797	 407
 407	 797	 202
 165	 811	 408
 408	 811	 202
 409	 233	 418
 410	 233	 409
 234	 812	 411
 411	 812	 410
 410	 409	 411
 411	 409	 584
 412	 587	 234
 234	 411	 412
 412	 411	 584
 413	 208	 211
 413	 214	 205
 414	 798	  59
 205	 798	 414
  59	  58	 414
  58	 208	 414
 414	 413	 205
 208	 413	 414
 415	 588	 592
 415	 412	 584
 216	 221	 691
 219	 220	 416
 416	 221	 219
 416	 220	 440
 417	 222	 418
 417	 223	 222
 418	 233	 417
 417	 233	  66
 417	  66	  65
  65	 223	 417
 419	 224	 421
 420	 800	 813
 421	 422	 423
 422	 813	 423
 423	 813	 800
 424	 814	 273
 425	 814	 424
 273	 815	 424
 424	 815	 628
 426	 628	 274
 426	 419	 421
 274	 419	 426
  27	 596	 816
 228	 427	 428
 427	 816	 428
 428	 816	 596
 429	 227	 430
 429	 226	 420
 430	 226	 429
 431	 596	  28
 232	 817	 431
 431	  66	 232
  28	  66	 431
  74	 697	 432
 432	 230	 229
 430	 231	 433
 225	 226	 433
 433	 226	 430
 434	 817	 232
 229	 817	 434
 232	 410	 434
 410	 812	 434
  74	 432	 435
 435	 432	 229
 435	  67	  74
 435	 812	  67
 229	 434	 435
 435	 434	 812
 436	  69	 437
 437	 242	 436
 438	 243	 437
 243	 242	 437
  62	 602	 439
 439	  69	  62
 439	 442	  69
 440	 441	 443
 441	 442	 443
 442	 439	 443
 443	 416	 440
 441	 699	 444
 444	 442	 441
  77	  78	 445
 445	  78	  29
 446	 247	  77
  79	 247	 446
  77	 445	 446
 446	 445	 605
 238	  79	 447
 447	 609	 238
  79	 446	 447
 447	 446	 605
 448	 607	  71
 449	 695	 820
 450	 779	 451
 451	 612	 450
 451	 779	 248
 248	 245	 451
 266	 612	 451
 451	 245	 266
 452	  76	 243
 452	 253	  76
 243	  70	 452
 452	  70	 607
 452	 607	 252
 252	 253	 452
 453	 254	 830
  81	 453	 454
 454	 246	  81
 455	 246	 454
 454	 255	 455
 456	 818	 463
 457	 464	 459
 458	  89	 459
 459	  89	 457
 460	 464	 461
 461	 456	 460
 460	 456	 463
 462	 819	 458
 463	 819	 462
 458	 459	 462
 462	 459	 464
 462	 460	 463
 464	 460	 462
 463	 818	 465
 465	 819	 463
 465	 818	 256
 256	 257	 465
 465	 257	 259
 259	 819	 465
 466	  87	  85
 467	  87	 466
 468	 466	 469
  85	 814	 469
 469	 466	  85
 470	 612	 266
 266	 475	 470
 449	 820	 470
 470	 820	 612
 471	 424	 628
 471	 629	 425
 425	 424	 471
 472	 475	 267
 267	 629	 472
 260	 802	 473
 425	 629	 473
 473	 267	 260
 473	 629	 267
 474	 632	 449
 449	 470	 474
 474	 470	 475
 475	 472	 474
 476	 258	 268
 268	 716	 476
 476	 715	 656
 476	 716	 715
 477	  87	 269
 269	 272	 477
 275	 276	 477
 477	 276	  87
  86	 275	 477
 477	 272	  86
 478	 480	 275
 274	 815	 479
 479	 478	 756
 479	 815	 480
 480	 478	 479
 481	 277	 339
 467	 466	 482
 482	 466	 468
 483	 821	 484
  37	 821	 483
 484	  38	 483
  38	 287	 483
 485	 783	  98
 485	 289	 783
  98	 488	 485
 486	 119	 310
 120	 119	 486
 310	 487	 486
 487	 488	 486
 486	 304	 120
 488	 304	 486
 489	 822	 490
 490	  38	 489
 288	  38	 490
 490	 101	 288
 490	 291	 101
 490	 822	 291
 491	 300	 343
 343	 341	 491
  98	 784	 492
 492	 304	  98
 492	 784	 306
 306	 305	 492
 114	 304	 492
 492	 305	 114
 178	 673	 493
 493	 312	 359
 493	 807	 178
 359	 807	 493
 132	 316	 494
 316	 314	 494
 494	 136	 132
 324	 136	 494
 130	 324	 494
 494	 314	 130
 495	  93	 496
 496	 318	 495
 496	 279	 497
  93	 279	 496
 497	 115	 496
 115	 318	 496
 145	 337	 498
 498	 337	  34
 499	  34	  32
  32	 136	 499
 499	 498	  34
 325	 498	 499
 499	 136	 324
 324	 325	 499
 140	 333	 500
 500	 333	 145
 500	 137	 140
 500	 325	 137
 145	 498	 500
 500	 498	 325
 327	 823	 727
 501	 640	  88
  88	 328	 501
 502	 328	  90
 503	 644	 646
 504	 506	 507
 504	 330	 327
 327	 727	 505
 505	 727	 644
 505	 504	 327
 506	 504	 505
 507	 506	 508
 508	 332	 507
 509	 332	 508
 510	 824	 511
 511	 824	 720
 271	 270	 512
 512	 720	 271
 513	 819	 259
 458	 819	 513
 514	 476	 656
 258	 476	 514
 515	 655	 271
 271	 824	 515
 516	 335	 334
 509	 335	 516
 516	 139	 144
 334	 139	 516
 144	 332	 516
 516	 332	 509
 517	 804	   6
 517	 344	 804
 518	 344	 517
 154	 153	 519
 153	 344	 519
 519	 220	 154
 519	 344	 518
 520	 150	 739
 521	 825	 522
 522	 825	 524
 523	 441	 440
 523	 699	 441
 523	 825	 699
 524	 825	 523
 525	 351	 348
 526	 356	  42
 526	 155	 353
  42	 155	 526
 527	 357	 185
 185	 794	 527
 527	 794	 193
  14	  44	 528
  44	 363	 528
 528	 156	  14
 529	 156	 528
 530	 157	 183
 530	 363	 157
 529	 528	 530
 530	 528	 363
 158	 531	 751
 531	 666	 751
 239	 801	 532
 532	 801	 347
 237	 236	 533
 533	 666	 237
 533	 236	 239
 239	 532	 533
 534	 371	 165
 534	 368	 371
 165	 408	 534
 534	 408	 197
 197	 369	 534
 369	 368	 534
 378	 811	 535
 535	 373	 378
 165	 166	 535
 535	 811	 165
 536	 374	  47
 166	 374	 536
  47	 382	 536
 382	 373	 536
 536	 535	 166
 373	 535	 536
 537	 762	 538
 538	 525	 537
 539	 379	 387
 397	 379	 539
 539	 392	 175
 387	 392	 539
 175	 809	 539
 539	 809	 397
 397	 810	 540
 540	 379	 397
 540	 810	 201
 201	 797	 540
 540	 797	 380
 380	 379	 540
 541	 676	 680
 542	 290	 543
 543	 541	 542
 177	 176	 544
 176	 393	 544
 544	 680	 177
 544	 541	 680
 393	 542	 544
 544	 542	 541
 545	 127	 336
 124	 127	 545
 336	 788	 546
 546	 545	 336
 547	 545	 546
 122	 125	 548
 125	 124	 548
 548	 396	 122
 547	 396	 548
 124	 545	 548
 548	 545	 547
 549	 394	 550
 550	 394	 179
 551	 678	 549
 552	 678	 551
 553	 678	 552
 554	 550	 559
 549	 550	 554
 554	 551	 549
 555	 551	 554
 556	 676	 552
 552	 551	 556
 556	 551	 555
 557	 399	 809
 557	 556	 555
  48	 400	 558
 400	 401	 558
 558	 401	 398
 558	 402	  48
 183	 184	 826
 184	 402	 826
 559	 560	 561
 560	 826	 561
 561	 826	 402
 562	 827	 529
 560	 827	 562
 562	 530	 183
 529	 530	 562
 183	 826	 562
 562	 826	 560
 563	 807	 361
 361	 827	 563
 178	 807	 563
 563	 179	 178
 564	 560	 559
 564	 827	 560
 559	 550	 564
 564	 550	 179
 179	 563	 564
 564	 563	 827
 565	 194	 192
 192	 403	 565
 566	 795	 199
 199	 571	 566
 567	 405	 566
 566	 405	 795
 566	 569	 567
 566	 571	 569
 568	 403	 569
 569	 571	 568
 570	 565	 568
 568	 565	 403
 568	 828	 570
 571	 828	 568
  55	 189	 572
 189	 404	 572
  54	  55	 572
 572	 191	  54
 193	 191	 572
 572	 404	 193
 573	 354	 574
 574	 354	 806
 574	 404	 573
 575	 565	 570
 194	 565	 575
 576	 150	 151